LAMMPS data file Created by LigParGen - (Written by Leela S. Dodda)

      26 atoms
      28 bonds
      43 angles
      60 dihedrals
      12 impropers
 
      26 atom types
      28 bond types
      43 angle types
      60 dihedral types
      12 improper types
 
  -10.500840    39.499160 xlo xhi
    0.453710    50.453710 ylo yhi
   -5.938290    44.061710 zlo zhi

Masses

       1      1.008  
       2     12.011  
       3     12.011  
       4     12.011  
       5      1.008  
       6     32.060  
       7      1.008  
       8     12.011  
       9     12.011  
      10     14.007  
      11     14.007  
      12     12.011  
      13     12.011  
      14     14.007  
      15     12.011  
      16     12.011  
      17      1.008  
      18      1.008  
      19      1.008  
      20     32.060  
      21     12.011  
      22     12.011  
      23      1.008  
      24     12.011  
      25      1.008  
      26      1.008  

Pair Coeffs 

       1      0.030  2.4200000 
       2      0.070  3.5500000 
       3      0.070  3.5500000 
       4      0.070  3.5500000 
       5      0.030  2.4200000 
       6      0.250  3.5500000 
       7      0.030  2.4200000 
       8      0.070  3.5500000 
       9      0.070  3.5500000 
      10      0.170  3.2500000 
      11      0.170  3.2500000 
      12      0.070  3.5500000 
      13      0.070  3.5500000 
      14      0.170  3.2500000 
      15      0.070  3.5500000 
      16      0.070  3.5500000 
      17      0.000  0.0000000 
      18      0.000  0.0000000 
      19      0.030  2.4200000 
      20      0.250  3.5500000 
      21      0.070  3.5500000 
      22      0.070  3.5500000 
      23      0.030  2.4200000 
      24      0.070  3.5500000 
      25      0.030  2.4200000 
      26      0.030  2.4200000 

Bond Coeffs 

       1   367.0000     1.0800 
       2   546.0000     1.3800 
       3   469.0000     1.4240 
       4   367.0000     1.0800 
       5   250.0000     1.7400 
       6   367.0000     1.0800 
       7   546.0000     1.3800 
       8   385.0000     1.4600 
       9   483.0000     1.3390 
      10   483.0000     1.3390 
      11   483.0000     1.3390 
      12   483.0000     1.3390 
      13   427.0000     1.3810 
      14   469.0000     1.4000 
      15   385.0000     1.4600 
      16   434.0000     1.0100 
      17   434.0000     1.0100 
      18   367.0000     1.0800 
      19   250.0000     1.7400 
      20   546.0000     1.3800 
      21   250.0000     1.7400 
      22   367.0000     1.0800 
      23   469.0000     1.4240 
      24   367.0000     1.0800 
      25   367.0000     1.0800 
      26   250.0000     1.7400 
      27   469.0000     1.4000 
      28   546.0000     1.3800 

Angle Coeffs 

       1     35.000    123.100
       2     35.000    127.500
       3     35.000    128.200
       4     70.000    111.000
       5     35.000    127.500
       6     70.000    112.300
       7     63.000    127.700
       8     63.000    116.800
       9     63.000    116.800
      10     70.000    117.000
      11     70.000    117.000
      12     65.150    118.720
      13     70.000    124.000
      14     63.000    116.800
      15     35.000    119.800
      16     35.000    119.800
      17     35.000    120.000
      18     63.000    121.700
      19     63.000    127.700
      20     70.000     92.200
      21     35.000    123.100
      22     70.000    112.300
      23     35.000    120.000
      24     35.000    127.500
      25     70.000     92.200
      26     70.000    120.000
      27     35.000    123.100
      28     70.000    112.300
      29     35.000    128.200
      30     35.000    127.500
      31     35.000    120.000
      32     70.000    124.000
      33     70.000    126.300
      34     63.000    121.700
      35     63.000    120.500
      36     35.000    120.000
      37     35.000    120.000
      38     70.000    111.000
      39     70.000    111.000
      40     35.000    123.100
      41     70.000    112.300
      42     63.000    120.000
      43     70.000    111.000

Dihedral Coeffs  

       1      0.000      7.250      0.000      0.000 
       2      0.000     10.750      0.000      0.000 
       3      0.000      7.250      0.000      0.000 
       4      0.000      7.250      0.000      0.000 
       5      0.000      7.250      0.000      0.000 
       6      0.000      1.950      0.000      0.000 
       7      0.000      1.950      0.000      0.000 
       8      0.000      7.250      0.000      0.000 
       9      0.000      7.250      0.000      0.000 
      10      0.000      7.250      0.000      0.000 
      11      0.000      7.250      0.000      0.000 
      12      0.000      7.250      0.000      0.000 
      13      0.000      3.800      0.000      0.000 
      14      0.000      3.800      0.000      0.000 
      15      0.000      7.250      0.000      0.000 
      16      0.000      2.650      0.000      0.000 
      17      0.000      1.950      0.000      0.000 
      18      0.000      7.250      0.000      0.000 
      19      0.000      7.250      0.000      0.000 
      20      0.000      7.250      0.000      0.000 
      21      0.000      7.250      0.000      0.000 
      22      0.000      7.250      0.000      0.000 
      23      0.000      7.250      0.000      0.000 
      24      0.000      7.250      0.000      0.000 
      25      0.000      7.250      0.000      0.000 
      26      0.000      2.650      0.000      0.000 
      27      0.000      7.250      0.000      0.000 
      28      0.000     10.750      0.000      0.000 
      29      0.000      7.250      0.000      0.000 
      30      0.000     10.750      0.000      0.000 
      31      0.000      7.250      0.000      0.000 
      32      0.000      7.250      0.000      0.000 
      33      0.000      7.250      0.000      0.000 
      34      0.000      7.250      0.000      0.000 
      35      0.000     10.750      0.000      0.000 
      36      0.000      7.250      0.000      0.000 
      37      0.000      2.100      0.000      0.000 
      38      0.000      1.490      0.000      0.000 
      39      0.000      7.250      0.000      0.000 
      40      0.000      7.250      0.000      0.000 
      41      0.000      7.250      0.000      0.000 
      42      0.000      7.250      0.000      0.000 
      43      0.000      7.250      0.000      0.000 
      44      0.000      7.250      0.000      0.000 
      45      0.000      7.250      0.000      0.000 
      46      0.000      7.250      0.000      0.000 
      47      0.000      7.250      0.000      0.000 
      48      0.000      7.250      0.000      0.000 
      49      0.000      7.250      0.000      0.000 
      50      0.000      1.330      0.000      0.000 
      51      0.000      7.250      0.000      0.000 
      52      0.000      7.250      0.000      0.000 
      53      0.000      7.250      0.000      0.000 
      54      0.000      7.250      0.000      0.000 
      55      0.000      7.250      0.000      0.000 
      56      0.000      2.100      0.000      0.000 
      57      0.000      2.650      0.000      0.000 
      58      0.000      7.250      0.000      0.000 
      59      0.000      7.250      0.000      0.000 
      60      0.000      7.250      0.000      0.000 

Improper Coeffs 

       1      2.500      -1       2 
       2      2.500      -1       2 
       3      2.500      -1       2 
       4      2.500      -1       2 
       5      2.500      -1       2 
       6      2.500      -1       2 
       7      2.500      -1       2 
       8      2.500      -1       2 
       9      2.500      -1       2 
      10      2.500      -1       2 
      11      2.500      -1       2 
      12      2.500      -1       2 

Atoms 

     1      1      1 0.17840000    1.000  1.00000  0.00000
     2      1      2 -0.17130000   -0.082  1.00000  0.00000
     3      1      3 -0.22820000   -0.842  1.00000  1.14685
     4      1      4 -0.09330000   -0.891  1.00148 -1.17338
     5      1      5 0.19380000   -0.491  1.00000  2.17025
     6      1      6 0.12710000   -2.515  1.00200  0.80695
     7      1      7 0.19110000   -0.496  1.00276 -2.18283
     8      1      8 -0.14320000   -2.252  1.00275 -0.89892
     9      1      9 0.43170000   -3.371  1.00590 -1.85158
    10      1     10 -0.56550000   -3.023  1.00777 -3.15089
    11      1     11 -0.49220000   -4.621  1.06075 -1.37160
    12      1     12 0.42890000   -4.026  1.06563 -4.02694
    13      1     13 0.28530000   -5.608  1.11666 -2.28841
    14      1     14 -0.89270000   -3.685  1.12566 -5.37753
    15      1     15 -0.30160000   -5.346  1.12078 -3.64451
    16      1     16 -0.16240000   -6.969  1.17418 -1.71910
    17      1     17 0.42420000   -4.198  0.45371 -5.93829
    18      1     18 0.42420000   -2.680  1.00832 -5.45608
    19      1     19 0.18290000   -6.127  1.16550 -4.39144
    20      1     20 0.08640000   -8.364  1.25202 -2.73010
    21      1     21 -0.08710000   -7.344  1.17753 -0.38721
    22      1     22 -0.22370000   -9.433  1.28901 -1.40373
    23      1     23 0.19720000   -6.625  1.13530  0.42260
    24      1     24 -0.16840000   -8.756  1.24322 -0.19934
    25      1     25 0.19670000  -10.501  1.34314 -1.56420
    26      1     26 0.18190000   -9.250  1.25519  0.76436

Bonds 

     1      1      2      1
     2      2      3      2
     3      3      4      2
     4      4      5      3
     5      5      6      3
     6      6      7      4
     7      7      8      4
     8      8      9      8
     9      9     10      9
    10     10     11      9
    11     11     12     10
    12     12     13     11
    13     13     14     12
    14     14     15     12
    15     15     16     13
    16     16     17     14
    17     17     18     14
    18     18     19     15
    19     19     20     16
    20     20     21     16
    21     21     22     20
    22     22     23     21
    23     23     24     21
    24     24     25     22
    25     25     26     24
    26     26      8      6
    27     27     15     13
    28     28     24     22

Angles 

     1      1      1      2      3
     2      2      1      2      4
     3      3      2      3      5
     4      4      2      3      6
     5      5      2      4      7
     6      6      2      4      8
     7      7      4      8      9
     8      8      8      9     10
     9      9      8      9     11
    10     10      9     10     12
    11     11      9     11     13
    12     12     10     12     14
    13     13     10     12     15
    14     14     11     13     16
    15     15     12     14     17
    16     16     12     14     18
    17     17     12     15     19
    18     18     13     16     20
    19     19     13     16     21
    20     20     16     20     22
    21     21     16     21     23
    22     22     16     21     24
    23     23     20     22     25
    24     24     21     24     26
    25     25      3      6      8
    26     26     14     12     15
    27     27      7      4      8
    28     28      3      2      4
    29     29     24     22     25
    30     30     23     21     24
    31     31     17     14     18
    32     32     11     13     15
    33     33     10      9     11
    34     34      6      8      9
    35     35     15     13     16
    36     36     13     15     19
    37     37      5      3      6
    38     38     20     22     24
    39     39      4      8      6
    40     40     22     24     26
    41     41     21     24     22
    42     42     12     15     13
    43     43     20     16     21

Dihedrals

     1      1      5      3      2      1 
     2      2      6      3      2      1 
     3      3      7      4      2      1 
     4      4      8      4      2      1 
     5      5      9      8      4      2 
     6      6     10      9      8      4 
     7      7     11      9      8      4 
     8      8     12     10      9      8 
     9      9     13     11      9      8 
    10     10     14     12     10      9 
    11     11     15     12     10      9 
    12     12     16     13     11      9 
    13     13     17     14     12     10 
    14     14     18     14     12     10 
    15     15     19     15     12     10 
    16     16     20     16     13     11 
    17     17     21     16     13     11 
    18     18     22     20     16     13 
    19     19     23     21     16     13 
    20     20     24     21     16     13 
    21     21     25     22     20     16 
    22     22     26     24     21     16 
    23     23     23     21     24     22 
    24     24      7      4      2      3 
    25     25      9      8      6      3 
    26     26     11      9      8      6 
    27     27     12     10      9     11 
    28     28     23     21     16     20 
    29     29     22     24     21     16 
    30     30      7      4      8      6 
    31     31      9      8      4      7 
    32     32     12     15     13     11 
    33     33      5      3      2      4 
    34     34     24     22     20     16 
    35     35     26     24     22     20 
    36     36      8      6      3      5 
    37     37     17     14     12     15 
    38     38     21     16     13     15 
    39     39     15     13     11      9 
    40     40     13     15     12     10 
    41     41      6      8      4      2 
    42     42      4      8      6      3 
    43     43     24     21     16     20 
    44     44     26     24     21     23 
    45     45      6      3      2      4 
    46     46     22     20     16     21 
    47     47     16     13     15     12 
    48     48     21     24     22     20 
    49     49     19     15     13     16 
    50     50     20     16     13     15 
    51     51     25     22     24     21 
    52     52      8      6      3      2 
    53     53     14     12     15     13 
    54     54     19     15     13     11 
    55     55     13     11      9     10 
    56     56     18     14     12     15 
    57     57     10      9      8      6 
    58     58      8      4      2      3 
    59     59     19     15     12     14 
    60     60     26     24     22     25 

Impropers

     1      1      2      1      3      4 
     2      2      3      2      5      6 
     3      3      4      2      7      8 
     4      4      8      9      4      6 
     5      5      9     10     11      8 
     6      6     12     10     14     15 
     7      7     13     11     15     16 
     8      8     15     19     12     13 
     9      9     16     13     20     21 
    10     10     21     24     23     16 
    11     11     22     25     20     24 
    12     12     24     26     21     22 
