LAMMPS data file Created by LigParGen - (Written by Leela S. Dodda)

      26 atoms
      28 bonds
      43 angles
      60 dihedrals
      12 impropers
 
      26 atom types
      28 bond types
      43 angle types
      60 dihedral types
      12 improper types
 
   -1.038030    48.961970 xlo xhi
    0.344220    50.344220 ylo yhi
   -0.921210    49.078790 zlo zhi

Masses

       1     12.011  
       2     12.011  
       3     32.060  
       4     12.011  
       5     12.011  
       6     12.011  
       7     12.011  
       8     12.011  
       9     14.007  
      10     12.011  
      11     14.007  
      12     12.011  
      13     12.011  
      14     32.060  
      15     12.011  
      16     12.011  
      17     14.007  
      18      1.008  
      19      1.008  
      20      1.008  
      21      1.008  
      22      1.008  
      23      1.008  
      24      1.008  
      25      1.008  
      26      1.008  

Pair Coeffs 

       1      0.070  3.5500000 
       2      0.070  3.5500000 
       3      0.250  3.5500000 
       4      0.070  3.5500000 
       5      0.070  3.5500000 
       6      0.070  3.5500000 
       7      0.070  3.5500000 
       8      0.070  3.5500000 
       9      0.170  3.2500000 
      10      0.070  3.5500000 
      11      0.170  3.2500000 
      12      0.070  3.5500000 
      13      0.070  3.5500000 
      14      0.250  3.5500000 
      15      0.070  3.5500000 
      16      0.070  3.5500000 
      17      0.170  3.2500000 
      18      0.030  2.4200000 
      19      0.030  2.4200000 
      20      0.030  2.4200000 
      21      0.030  2.4200000 
      22      0.030  2.4200000 
      23      0.030  2.4200000 
      24      0.030  2.4200000 
      25      0.000  0.0000000 
      26      0.000  0.0000000 

Bond Coeffs 

       1   546.0000     1.3800 
       2   250.0000     1.7400 
       3   250.0000     1.7400 
       4   469.0000     1.4240 
       5   385.0000     1.4600 
       6   469.0000     1.4000 
       7   469.0000     1.4000 
       8   483.0000     1.3390 
       9   483.0000     1.3390 
      10   483.0000     1.3390 
      11   385.0000     1.4600 
      12   546.0000     1.3800 
      13   250.0000     1.7400 
      14   250.0000     1.7400 
      15   469.0000     1.4240 
      16   427.0000     1.3810 
      17   367.0000     1.0800 
      18   367.0000     1.0800 
      19   367.0000     1.0800 
      20   367.0000     1.0800 
      21   367.0000     1.0800 
      22   367.0000     1.0800 
      23   367.0000     1.0800 
      24   434.0000     1.0100 
      25   434.0000     1.0100 
      26   546.0000     1.3800 
      27   483.0000     1.3390 
      28   546.0000     1.3800 

Angle Coeffs 

       1     70.000    111.000
       2     70.000     92.200
       3     70.000    112.300
       4     70.000    127.500
       5     63.000    120.000
       6     63.000    120.000
       7     70.000    124.000
       8     70.000    117.000
       9     63.000    117.000
      10     63.000    117.000
      11     63.000    123.600
      12     70.000    111.000
      13     70.000     92.200
      14     70.000    127.500
      15     70.000    120.000
      16     35.000    123.100
      17     35.000    128.200
      18     35.000    120.000
      19     35.000    120.000
      20     35.000    128.200
      21     35.000    120.000
      22     35.000    127.500
      23     35.000    119.800
      24     35.000    119.800
      25     63.000    117.000
      26     35.000    120.000
      27     35.000    120.000
      28     70.000    112.300
      29     70.000    111.000
      30     63.000    123.600
      31     35.000    120.000
      32     35.000    120.000
      33     70.000    112.300
      34     70.000    126.300
      35     35.000    128.200
      36     35.000    128.200
      37     70.000    111.000
      38     70.000    117.000
      39     65.150    118.720
      40     70.000    112.300
      41     35.000    127.500
      42     70.000    124.000
      43     35.000    123.100

Dihedral Coeffs  

       1      0.000      7.250      0.000      0.000 
       2      0.000      7.250      0.000      0.000 
       3      0.000      7.250      0.000      0.000 
       4      0.000      1.490      0.000      0.000 
       5      0.000      7.250      0.000      0.000 
       6      0.000      7.250      0.000      0.000 
       7      0.000      7.250      0.000      0.000 
       8      0.000      1.950      0.000      0.000 
       9      0.000      7.250      0.000      0.000 
      10      0.000      1.950      0.000      0.000 
      11      0.000      7.250      0.000      0.000 
      12      0.000      7.250      0.000      0.000 
      13      0.000      1.950      0.000      0.000 
      14      0.000      7.250      0.000      0.000 
      15      0.000     10.750      0.000      0.000 
      16      0.000      7.250      0.000      0.000 
      17      0.000      7.250      0.000      0.000 
      18      0.000      7.250      0.000      0.000 
      19      0.000      7.250      0.000      0.000 
      20      0.000      7.250      0.000      0.000 
      21      0.000      7.250      0.000      0.000 
      22      0.000      2.100      0.000      0.000 
      23      0.000      2.100      0.000      0.000 
      24      0.000      7.250      0.000      0.000 
      25      0.000      3.800      0.000      0.000 
      26      0.000      7.250      0.000      0.000 
      27      0.000      7.250      0.000      0.000 
      28      0.000      1.950      0.000      0.000 
      29      0.000      7.250      0.000      0.000 
      30      0.000      7.250      0.000      0.000 
      31      0.000      7.250      0.000      0.000 
      32      0.000      7.250      0.000      0.000 
      33      0.000      1.490      0.000      0.000 
      34      0.000      7.250      0.000      0.000 
      35      0.000      1.950      0.000      0.000 
      36      0.000     10.750      0.000      0.000 
      37      0.000      7.250      0.000      0.000 
      38      0.000      7.250      0.000      0.000 
      39      0.000      1.950      0.000      0.000 
      40      0.000      7.250      0.000      0.000 
      41      0.000      7.250      0.000      0.000 
      42      0.000      7.250      0.000      0.000 
      43      0.000      7.250      0.000      0.000 
      44      0.000      7.250      0.000      0.000 
      45      0.000      7.250      0.000      0.000 
      46      0.000      7.250      0.000      0.000 
      47      0.000      7.250      0.000      0.000 
      48      0.000      7.250      0.000      0.000 
      49      0.000      7.250      0.000      0.000 
      50      0.000      7.250      0.000      0.000 
      51      0.000      7.250      0.000      0.000 
      52      0.000      7.250      0.000      0.000 
      53      0.000      7.250      0.000      0.000 
      54      0.000      7.250      0.000      0.000 
      55      0.000      7.250      0.000      0.000 
      56      0.000      7.250      0.000      0.000 
      57      0.000      7.250      0.000      0.000 
      58      0.000      7.250      0.000      0.000 
      59      0.000      7.250      0.000      0.000 
      60      0.000      3.800      0.000      0.000 

Improper Coeffs 

       1      2.500      -1       2 
       2      2.500      -1       2 
       3      2.500      -1       2 
       4      2.500      -1       2 
       5      2.500      -1       2 
       6      2.500      -1       2 
       7      2.500      -1       2 
       8      2.500      -1       2 
       9      2.500      -1       2 
      10      2.500      -1       2 
      11      2.500      -1       2 
      12      2.500      -1       2 

Atoms 

     1      1      1 -0.12760000    1.000  1.00000  0.00000
     2      1      2 -0.25840000   -0.378  1.00000  0.00000
     3      1      3 0.08360000   -1.013  1.00000  1.58371
     4      1      4 -0.16960000    0.556  1.00000  2.26548
     5      1      5 -0.07600000    1.560  1.00000  1.32453
     6      1      6 0.27110000    2.977  1.00146  1.70976
     7      1      7 -0.28910000    3.974  1.00309  0.75837
     8      1      8 0.42340000    5.269  1.00281  1.22268
     9      1      9 -0.57720000    5.572  1.00108  2.52199
    10      1     10 0.42520000    4.533  0.99957  3.37594
    11      1     11 -0.49060000    3.241  0.99959  3.03098
    12      1     12 -0.06040000    4.857  0.99931  4.80125
    13      1     13 -0.17470000    3.880  0.99930  5.77908
    14      1     14 0.07970000    4.527  1.00097  7.36395
    15      1     15 -0.26910000    6.127  1.00173  6.76439
    16      1     16 -0.09960000    6.168  1.00049  5.38972
    17      1     17 -0.89510000    6.333  1.05986  0.32308
    18      1     18 0.17580000    1.569  1.00116 -0.92121
    19      1     19 0.19600000   -1.038  1.00108 -0.85675
    20      1     20 0.21060000    0.660  1.00120  3.34334
    21      1     21 0.18140000    3.771  1.00337 -0.30231
    22      1     22 0.20770000    2.806  0.99947  5.64159
    23      1     23 0.19440000    6.964  1.00405  7.44948
    24      1     24 0.19270000    7.089  1.00175  4.81785
    25      1     25 0.42280000    6.276  0.34422 -0.39314
    26      1     26 0.42280000    7.198  1.00528  0.85493

Bonds 

     1      1      2      1
     2      2      3      2
     3      3      4      3
     4      4      5      1
     5      5      6      5
     6      6      7      6
     7      7      8      7
     8      8      9      8
     9      9     10      9
    10     10     11      6
    11     11     12     10
    12     12     13     12
    13     13     14     13
    14     14     15     14
    15     15     16     12
    16     16     17      8
    17     17     18      1
    18     18     19      2
    19     19     20      4
    20     20     21      7
    21     21     22     13
    22     22     23     15
    23     23     24     16
    24     24     25     17
    25     25     26     17
    26     26      5      4
    27     27     11     10
    28     28     16     15

Angles 

     1      1      1      2      3
     2      2      2      3      4
     3      3      2      1      5
     4      4      1      5      6
     5      5      5      6      7
     6      6      6      7      8
     7      7      7      8      9
     8      8      8      9     10
     9      9      5      6     11
    10     10      9     10     12
    11     11     10     12     13
    12     12     12     13     14
    13     13     13     14     15
    14     14     10     12     16
    15     15      7      8     17
    16     16      2      1     18
    17     17      1      2     19
    18     18      3      4     20
    19     19      6      7     21
    20     20     12     13     22
    21     21     14     15     23
    22     22     12     16     24
    23     23      8     17     25
    24     24      8     17     26
    25     25     11     10     12
    26     26     25     17     26
    27     27      3      2     19
    28     28     13     12     16
    29     29      3      4      5
    30     30      4      5      6
    31     31      8      7     21
    32     32     14     13     22
    33     33      1      5      4
    34     34      9     10     11
    35     35      5      4     20
    36     36     16     15     23
    37     37     14     15     16
    38     38      6     11     10
    39     39      9      8     17
    40     40     12     16     15
    41     41      5      1     18
    42     42      7      6     11
    43     43     15     16     24

Dihedrals

     1      1      4      3      2      1 
     2      2      5      1      2      3 
     3      3      6      5      1      2 
     4      4      7      6      5      1 
     5      5      8      7      6      5 
     6      6      9      8      7      6 
     7      7     10      9      8      7 
     8      8     11      6      5      1 
     9      9     12     10      9      8 
    10     10     13     12     10      9 
    11     11     14     13     12     10 
    12     12     15     14     13     12 
    13     13     16     12     10      9 
    14     14     17      8      7      6 
    15     15     18      1      2      3 
    16     16     19      2      1      5 
    17     17     20      4      3      2 
    18     18     21      7      6      5 
    19     19     22     13     12     10 
    20     20     23     15     14     13 
    21     21     24     16     12     10 
    22     22     25     17      8      7 
    23     23     26     17      8      7 
    24     24     14     15     16     12 
    25     25     26     17      8      9 
    26     26     24     16     15     23 
    27     27     10     11      6      7 
    28     28     11      6      5      4 
    29     29     22     13     14     15 
    30     30      4      5      1      2 
    31     31     21      7      6     11 
    32     32     12     10     11      6 
    33     33      7      6      5      4 
    34     34     18      1      5      6 
    35     35     16     12     10     11 
    36     36     24     16     15     14 
    37     37     16     12     13     14 
    38     38     11     10      9      8 
    39     39     13     12     10     11 
    40     40     10     11      6      5 
    41     41     21      7      8      9 
    42     42      5      4      3      2 
    43     43     15     16     12     10 
    44     44     16     15     14     13 
    45     45     20      4      5      1 
    46     46     24     16     12     13 
    47     47     19      2      1     18 
    48     48      9     10     11      6 
    49     49     18      1      5      4 
    50     50     20      4      5      6 
    51     51     21      7      8     17 
    52     52     17      8      9     10 
    53     53     11      6      7      8 
    54     54     19      2      3      4 
    55     55     15     16     12     13 
    56     56     23     15     16     12 
    57     57      6      5      4      3 
    58     58      3      4      5      1 
    59     59     22     13     12     16 
    60     60     25     17      8      9 

Impropers

     1      1      1      2      5     18 
     2      2      2      1     19      3 
     3      3      4     20      3      5 
     4      4      5      1      4      6 
     5      5      6     11      5      7 
     6      6      7     21      6      8 
     7      7      8      9     17      7 
     8      8     10      9     11     12 
     9      9     12     10     13     16 
    10     10     13     12     22     14 
    11     11     15     23     14     16 
    12     12     16     12     15     24 
